<?xml version="1.0" encoding="UTF-8"?>

<!-- generated on 2025-02-01 22:36:43 by Eclipse SUMO sumo Version 1.21.0
<sumoConfiguration xmlns:xsi="http://www.w3.org/2001/XMLSchema-instance" xsi:noNamespaceSchemaLocation="http://sumo.dlr.de/xsd/sumoConfiguration.xsd">

    <input>
        <net-file value="envs/basic/sumo/basic.net.xml"/>
        <route-files value="envs/basic/sumo/basic.rou.xml"/>
    </input>

    <output>
        <tripinfo-output value="envs/basic/sumo_output/sumo_log.txt"/>
    </output>

    <traci_server>
        <remote-port value="54597"/>
    </traci_server>

</sumoConfiguration>
-->

<tripinfos xmlns:xsi="http://www.w3.org/2001/XMLSchema-instance" xsi:noNamespaceSchemaLocation="http://sumo.dlr.de/xsd/tripinfo_file.xsd">
    <tripinfo id="0" depart="0.00" departLane="E5_0" departPos="5.10" departSpeed="0.00" departDelay="0.00" arrival="12.00" arrivalLane="E1_0" arrivalPos="42.80" arrivalSpeed="13.07" duration="12.00" routeLength="89.53" waitingTime="0.00" waitingCount="0" stopTime="0.00" timeLoss="5.45" rerouteNo="0" devices="tripinfo_0" vType="DEFAULT_VEHTYPE" speedFactor="1.06" vaporized=""/>
    <tripinfo id="1" depart="0.00" departLane="E6_0" departPos="5.10" departSpeed="0.00" departDelay="0.00" arrival="15.00" arrivalLane="E1_0" arrivalPos="42.80" arrivalSpeed="12.60" duration="15.00" routeLength="95.43" waitingTime="0.00" waitingCount="0" stopTime="0.00" timeLoss="6.44" rerouteNo="0" devices="tripinfo_1" vType="DEFAULT_VEHTYPE" speedFactor="0.94" vaporized=""/>
    <tripinfo id="5" depart="3.00" departLane="E6_0" departPos="5.10" departSpeed="0.00" departDelay="0.00" arrival="18.00" arrivalLane="E1_0" arrivalPos="42.80" arrivalSpeed="10.27" duration="15.00" routeLength="95.43" waitingTime="0.00" waitingCount="0" stopTime="0.00" timeLoss="5.35" rerouteNo="0" devices="tripinfo_5" vType="DEFAULT_VEHTYPE" speedFactor="0.83" vaporized=""/>
    <tripinfo id="6" depart="6.00" departLane="E6_0" departPos="5.10" departSpeed="0.00" departDelay="2.00" arrival="20.00" arrivalLane="E1_0" arrivalPos="42.80" arrivalSpeed="13.78" duration="14.00" routeLength="95.43" waitingTime="0.00" waitingCount="0" stopTime="0.00" timeLoss="6.25" rerouteNo="0" devices="tripinfo_6" vType="DEFAULT_VEHTYPE" speedFactor="1.05" vaporized=""/>
    <tripinfo id="7" depart="9.00" departLane="E6_0" departPos="5.10" departSpeed="0.00" departDelay="4.00" arrival="23.00" arrivalLane="E1_0" arrivalPos="42.80" arrivalSpeed="11.76" duration="14.00" routeLength="95.43" waitingTime="0.00" waitingCount="0" stopTime="0.00" timeLoss="5.13" rerouteNo="0" devices="tripinfo_7" vType="DEFAULT_VEHTYPE" speedFactor="0.89" vaporized=""/>
    <tripinfo id="11" depart="12.00" departLane="E6_0" departPos="5.10" departSpeed="0.00" departDelay="3.00" arrival="26.00" arrivalLane="E1_0" arrivalPos="42.80" arrivalSpeed="13.32" duration="14.00" routeLength="95.43" waitingTime="0.00" waitingCount="0" stopTime="0.00" timeLoss="6.12" rerouteNo="0" devices="tripinfo_11" vType="DEFAULT_VEHTYPE" speedFactor="1.03" vaporized=""/>
    <tripinfo id="2" depart="3.00" departLane="E5_0" departPos="5.10" departSpeed="0.00" departDelay="2.00" arrival="29.00" arrivalLane="E1_0" arrivalPos="42.80" arrivalSpeed="13.63" duration="26.00" routeLength="89.53" waitingTime="11.00" waitingCount="2" stopTime="0.00" timeLoss="18.69" rerouteNo="0" devices="tripinfo_2" vType="DEFAULT_VEHTYPE" speedFactor="1.01" vaporized=""/>
    <tripinfo id="15" depart="15.00" departLane="E6_0" departPos="5.10" departSpeed="0.00" departDelay="4.00" arrival="32.00" arrivalLane="E1_0" arrivalPos="42.80" arrivalSpeed="12.69" duration="17.00" routeLength="95.43" waitingTime="2.00" waitingCount="1" stopTime="0.00" timeLoss="8.89" rerouteNo="0" devices="tripinfo_15" vType="DEFAULT_VEHTYPE" speedFactor="0.93" vaporized=""/>
    <tripinfo id="16" depart="18.00" departLane="E6_0" departPos="5.10" departSpeed="0.00" departDelay="5.00" arrival="35.00" arrivalLane="E1_0" arrivalPos="42.80" arrivalSpeed="11.45" duration="17.00" routeLength="95.43" waitingTime="0.00" waitingCount="0" stopTime="0.00" timeLoss="7.72" rerouteNo="0" devices="tripinfo_16" vType="DEFAULT_VEHTYPE" speedFactor="0.88" vaporized=""/>
    <tripinfo id="17" depart="21.00" departLane="E6_0" departPos="5.10" departSpeed="0.00" departDelay="7.50" arrival="37.00" arrivalLane="E1_0" arrivalPos="42.80" arrivalSpeed="12.65" duration="16.00" routeLength="95.43" waitingTime="0.00" waitingCount="0" stopTime="0.00" timeLoss="7.70" rerouteNo="0" devices="tripinfo_17" vType="DEFAULT_VEHTYPE" speedFactor="0.94" vaporized=""/>
    <tripinfo id="19" depart="24.00" departLane="E6_0" departPos="5.10" departSpeed="0.00" departDelay="9.00" arrival="39.00" arrivalLane="E1_0" arrivalPos="42.80" arrivalSpeed="14.88" duration="15.00" routeLength="95.43" waitingTime="0.00" waitingCount="0" stopTime="0.00" timeLoss="8.15" rerouteNo="0" devices="tripinfo_19" vType="DEFAULT_VEHTYPE" speedFactor="1.16" vaporized=""/>
    <tripinfo id="20" depart="27.00" departLane="E6_0" departPos="5.10" departSpeed="0.00" departDelay="10.00" arrival="42.00" arrivalLane="E1_0" arrivalPos="42.80" arrivalSpeed="12.98" duration="15.00" routeLength="95.43" waitingTime="0.00" waitingCount="0" stopTime="0.00" timeLoss="6.89" rerouteNo="0" devices="tripinfo_20" vType="DEFAULT_VEHTYPE" speedFactor="1.02" vaporized=""/>
    <tripinfo id="3" depart="6.00" departLane="E5_0" departPos="5.10" departSpeed="0.00" departDelay="4.00" arrival="46.00" arrivalLane="E1_0" arrivalPos="42.80" arrivalSpeed="13.56" duration="40.00" routeLength="89.53" waitingTime="17.00" waitingCount="4" stopTime="0.00" timeLoss="33.47" rerouteNo="0" devices="tripinfo_3" vType="DEFAULT_VEHTYPE" speedFactor="1.08" vaporized=""/>
    <tripinfo id="4" depart="9.00" departLane="E5_0" departPos="5.10" departSpeed="0.00" departDelay="6.00" arrival="51.00" arrivalLane="E1_0" arrivalPos="42.80" arrivalSpeed="13.49" duration="42.00" routeLength="89.53" waitingTime="15.00" waitingCount="2" stopTime="0.00" timeLoss="34.88" rerouteNo="0" devices="tripinfo_4" vType="DEFAULT_VEHTYPE" speedFactor="1.03" vaporized=""/>
    <tripinfo id="8" depart="12.00" departLane="E5_0" departPos="5.10" departSpeed="0.00" departDelay="5.00" arrival="55.00" arrivalLane="E1_0" arrivalPos="42.80" arrivalSpeed="12.03" duration="43.00" routeLength="89.53" waitingTime="15.00" waitingCount="2" stopTime="0.00" timeLoss="35.25" rerouteNo="0" devices="tripinfo_8" vType="DEFAULT_VEHTYPE" speedFactor="0.94" vaporized=""/>
    <tripinfo id="9" depart="15.00" departLane="E5_0" departPos="5.10" departSpeed="0.00" departDelay="7.50" arrival="60.00" arrivalLane="E1_0" arrivalPos="42.80" arrivalSpeed="11.79" duration="45.00" routeLength="89.53" waitingTime="13.00" waitingCount="2" stopTime="0.00" timeLoss="36.28" rerouteNo="0" devices="tripinfo_9" vType="DEFAULT_VEHTYPE" speedFactor="0.86" vaporized=""/>
    <tripinfo id="10" depart="22.00" departLane="E5_0" departPos="5.10" departSpeed="0.00" departDelay="13.00" arrival="65.00" arrivalLane="E1_0" arrivalPos="42.80" arrivalSpeed="12.81" duration="43.00" routeLength="89.53" waitingTime="13.00" waitingCount="2" stopTime="0.00" timeLoss="36.59" rerouteNo="0" devices="tripinfo_10" vType="DEFAULT_VEHTYPE" speedFactor="1.09" vaporized=""/>
    <tripinfo id="12" depart="36.00" departLane="E5_0" departPos="5.10" departSpeed="0.00" departDelay="26.00" arrival="71.00" arrivalLane="E1_0" arrivalPos="42.80" arrivalSpeed="13.89" duration="35.00" routeLength="89.53" waitingTime="8.00" waitingCount="1" stopTime="0.00" timeLoss="27.72" rerouteNo="0" devices="tripinfo_12" vType="DEFAULT_VEHTYPE" speedFactor="1.05" vaporized=""/>
    <tripinfo id="13" depart="50.00" departLane="E5_0" departPos="5.10" departSpeed="0.00" departDelay="39.50" arrival="75.00" arrivalLane="E1_0" arrivalPos="42.80" arrivalSpeed="15.00" duration="25.00" routeLength="89.53" waitingTime="0.00" waitingCount="0" stopTime="0.00" timeLoss="18.07" rerouteNo="0" devices="tripinfo_13" vType="DEFAULT_VEHTYPE" speedFactor="1.12" vaporized=""/>
    <tripinfo id="14" depart="54.00" departLane="E5_0" departPos="5.10" departSpeed="0.00" departDelay="43.00" arrival="79.00" arrivalLane="E1_0" arrivalPos="42.80" arrivalSpeed="12.89" duration="25.00" routeLength="89.53" waitingTime="0.00" waitingCount="0" stopTime="0.00" timeLoss="17.65" rerouteNo="0" devices="tripinfo_14" vType="DEFAULT_VEHTYPE" speedFactor="0.99" vaporized=""/>
    <tripinfo id="18" depart="58.00" departLane="E5_0" departPos="5.10" departSpeed="0.00" departDelay="44.00" arrival="82.00" arrivalLane="E1_0" arrivalPos="42.80" arrivalSpeed="11.99" duration="24.00" routeLength="89.53" waitingTime="0.00" waitingCount="0" stopTime="0.00" timeLoss="15.78" rerouteNo="0" devices="tripinfo_18" vType="DEFAULT_VEHTYPE" speedFactor="0.94" vaporized=""/>
</tripinfos>
