<?xml version="1.0" encoding="UTF-8"?>

<!-- generated on 2025-02-01 23:18:39 by Eclipse SUMO sumo Version 1.21.0
<sumoConfiguration xmlns:xsi="http://www.w3.org/2001/XMLSchema-instance" xsi:noNamespaceSchemaLocation="http://sumo.dlr.de/xsd/sumoConfiguration.xsd">

    <input>
        <net-file value="envs/basic/sumo/basic.net.xml"/>
        <route-files value="envs/basic/sumo/basic.rou.xml"/>
    </input>

    <output>
        <tripinfo-output value="envs/basic/sumo_output/sumo_log.txt"/>
    </output>

    <report>
        <no-step-log value="true"/>
    </report>

    <traci_server>
        <remote-port value="46137"/>
    </traci_server>

</sumoConfiguration>
-->

<tripinfos xmlns:xsi="http://www.w3.org/2001/XMLSchema-instance" xsi:noNamespaceSchemaLocation="http://sumo.dlr.de/xsd/tripinfo_file.xsd">
    <tripinfo id="0" depart="0.00" departLane="E5_0" departPos="5.10" departSpeed="0.00" departDelay="0.00" arrival="12.00" arrivalLane="E1_0" arrivalPos="42.80" arrivalSpeed="13.07" duration="12.00" routeLength="89.53" waitingTime="0.00" waitingCount="0" stopTime="0.00" timeLoss="5.45" rerouteNo="0" devices="tripinfo_0" vType="DEFAULT_VEHTYPE" speedFactor="1.06" vaporized=""/>
    <tripinfo id="1" depart="0.00" departLane="E6_0" departPos="5.10" departSpeed="0.00" departDelay="0.00" arrival="15.00" arrivalLane="E1_0" arrivalPos="42.80" arrivalSpeed="12.60" duration="15.00" routeLength="95.43" waitingTime="0.00" waitingCount="0" stopTime="0.00" timeLoss="6.44" rerouteNo="0" devices="tripinfo_1" vType="DEFAULT_VEHTYPE" speedFactor="0.94" vaporized=""/>
    <tripinfo id="5" depart="3.00" departLane="E6_0" departPos="5.10" departSpeed="0.00" departDelay="0.00" arrival="18.00" arrivalLane="E1_0" arrivalPos="42.80" arrivalSpeed="10.27" duration="15.00" routeLength="95.43" waitingTime="0.00" waitingCount="0" stopTime="0.00" timeLoss="5.35" rerouteNo="0" devices="tripinfo_5" vType="DEFAULT_VEHTYPE" speedFactor="0.83" vaporized=""/>
    <tripinfo id="2" depart="3.00" departLane="E5_0" departPos="5.10" departSpeed="0.00" departDelay="2.00" arrival="20.00" arrivalLane="E1_0" arrivalPos="42.80" arrivalSpeed="12.94" duration="17.00" routeLength="89.53" waitingTime="3.00" waitingCount="1" stopTime="0.00" timeLoss="10.04" rerouteNo="0" devices="tripinfo_2" vType="DEFAULT_VEHTYPE" speedFactor="1.01" vaporized=""/>
    <tripinfo id="3" depart="6.00" departLane="E5_0" departPos="5.10" departSpeed="0.00" departDelay="4.00" arrival="23.00" arrivalLane="E1_0" arrivalPos="42.80" arrivalSpeed="14.50" duration="17.00" routeLength="89.53" waitingTime="0.00" waitingCount="0" stopTime="0.00" timeLoss="9.71" rerouteNo="0" devices="tripinfo_3" vType="DEFAULT_VEHTYPE" speedFactor="1.08" vaporized=""/>
    <tripinfo id="6" depart="6.00" departLane="E6_0" departPos="5.10" departSpeed="0.00" departDelay="2.00" arrival="26.00" arrivalLane="E1_0" arrivalPos="42.80" arrivalSpeed="14.52" duration="20.00" routeLength="95.43" waitingTime="2.00" waitingCount="1" stopTime="0.00" timeLoss="12.16" rerouteNo="0" devices="tripinfo_6" vType="DEFAULT_VEHTYPE" speedFactor="1.05" vaporized=""/>
    <tripinfo id="4" depart="9.00" departLane="E5_0" departPos="5.10" departSpeed="0.00" departDelay="6.00" arrival="28.00" arrivalLane="E1_0" arrivalPos="42.80" arrivalSpeed="13.31" duration="19.00" routeLength="89.53" waitingTime="0.00" waitingCount="0" stopTime="0.00" timeLoss="11.86" rerouteNo="0" devices="tripinfo_4" vType="DEFAULT_VEHTYPE" speedFactor="1.03" vaporized=""/>
    <tripinfo id="7" depart="9.00" departLane="E6_0" departPos="5.10" departSpeed="0.00" departDelay="4.00" arrival="30.00" arrivalLane="E1_0" arrivalPos="42.80" arrivalSpeed="12.12" duration="21.00" routeLength="95.43" waitingTime="2.00" waitingCount="1" stopTime="0.00" timeLoss="12.57" rerouteNo="0" devices="tripinfo_7" vType="DEFAULT_VEHTYPE" speedFactor="0.89" vaporized=""/>
    <tripinfo id="11" depart="12.00" departLane="E6_0" departPos="5.10" departSpeed="0.00" departDelay="3.00" arrival="33.00" arrivalLane="E1_0" arrivalPos="42.80" arrivalSpeed="13.51" duration="21.00" routeLength="95.43" waitingTime="1.00" waitingCount="1" stopTime="0.00" timeLoss="13.03" rerouteNo="0" devices="tripinfo_11" vType="DEFAULT_VEHTYPE" speedFactor="1.03" vaporized=""/>
    <tripinfo id="8" depart="12.00" departLane="E5_0" departPos="5.10" departSpeed="0.00" departDelay="5.00" arrival="35.00" arrivalLane="E1_0" arrivalPos="42.80" arrivalSpeed="12.60" duration="23.00" routeLength="89.53" waitingTime="2.00" waitingCount="1" stopTime="0.00" timeLoss="15.59" rerouteNo="0" devices="tripinfo_8" vType="DEFAULT_VEHTYPE" speedFactor="0.94" vaporized=""/>
    <tripinfo id="9" depart="15.00" departLane="E5_0" departPos="5.10" departSpeed="0.00" departDelay="7.50" arrival="38.00" arrivalLane="E1_0" arrivalPos="42.80" arrivalSpeed="11.49" duration="23.00" routeLength="89.53" waitingTime="1.00" waitingCount="1" stopTime="0.00" timeLoss="14.39" rerouteNo="0" devices="tripinfo_9" vType="DEFAULT_VEHTYPE" speedFactor="0.86" vaporized=""/>
    <tripinfo id="15" depart="15.00" departLane="E6_0" departPos="5.10" departSpeed="0.00" departDelay="4.00" arrival="42.00" arrivalLane="E1_0" arrivalPos="42.80" arrivalSpeed="12.04" duration="27.00" routeLength="95.43" waitingTime="4.00" waitingCount="1" stopTime="0.00" timeLoss="18.43" rerouteNo="0" devices="tripinfo_15" vType="DEFAULT_VEHTYPE" speedFactor="0.93" vaporized=""/>
    <tripinfo id="16" depart="18.00" departLane="E6_0" departPos="5.10" departSpeed="0.00" departDelay="5.00" arrival="45.00" arrivalLane="E1_0" arrivalPos="42.80" arrivalSpeed="11.27" duration="27.00" routeLength="95.43" waitingTime="1.00" waitingCount="1" stopTime="0.00" timeLoss="17.65" rerouteNo="0" devices="tripinfo_16" vType="DEFAULT_VEHTYPE" speedFactor="0.88" vaporized=""/>
    <tripinfo id="17" depart="21.00" departLane="E6_0" departPos="5.10" departSpeed="0.00" departDelay="7.50" arrival="47.00" arrivalLane="E1_0" arrivalPos="42.80" arrivalSpeed="12.88" duration="26.00" routeLength="95.43" waitingTime="1.00" waitingCount="1" stopTime="0.00" timeLoss="17.52" rerouteNo="0" devices="tripinfo_17" vType="DEFAULT_VEHTYPE" speedFactor="0.94" vaporized=""/>
    <tripinfo id="19" depart="27.00" departLane="E6_0" departPos="5.10" departSpeed="0.00" departDelay="12.00" arrival="49.00" arrivalLane="E1_0" arrivalPos="42.80" arrivalSpeed="14.30" duration="22.00" routeLength="95.43" waitingTime="0.00" waitingCount="0" stopTime="0.00" timeLoss="14.82" rerouteNo="0" devices="tripinfo_19" vType="DEFAULT_VEHTYPE" speedFactor="1.16" vaporized=""/>
    <tripinfo id="20" depart="31.00" departLane="E6_0" departPos="5.10" departSpeed="0.00" departDelay="14.00" arrival="52.00" arrivalLane="E1_0" arrivalPos="42.80" arrivalSpeed="13.41" duration="21.00" routeLength="95.43" waitingTime="0.00" waitingCount="0" stopTime="0.00" timeLoss="12.83" rerouteNo="0" devices="tripinfo_20" vType="DEFAULT_VEHTYPE" speedFactor="1.02" vaporized=""/>
    <tripinfo id="10" depart="18.00" departLane="E5_0" departPos="5.10" departSpeed="0.00" departDelay="9.00" arrival="57.00" arrivalLane="E1_0" arrivalPos="42.80" arrivalSpeed="12.71" duration="39.00" routeLength="89.53" waitingTime="14.00" waitingCount="3" stopTime="0.00" timeLoss="32.56" rerouteNo="0" devices="tripinfo_10" vType="DEFAULT_VEHTYPE" speedFactor="1.09" vaporized=""/>
    <tripinfo id="12" depart="22.00" departLane="E5_0" departPos="5.10" departSpeed="0.00" departDelay="12.00" arrival="63.00" arrivalLane="E1_0" arrivalPos="42.80" arrivalSpeed="14.10" duration="41.00" routeLength="89.53" waitingTime="12.00" waitingCount="2" stopTime="0.00" timeLoss="33.71" rerouteNo="0" devices="tripinfo_12" vType="DEFAULT_VEHTYPE" speedFactor="1.05" vaporized=""/>
    <tripinfo id="13" depart="27.00" departLane="E5_0" departPos="5.10" departSpeed="0.00" departDelay="16.50" arrival="65.00" arrivalLane="E1_0" arrivalPos="42.80" arrivalSpeed="15.01" duration="38.00" routeLength="89.53" waitingTime="11.00" waitingCount="1" stopTime="0.00" timeLoss="30.58" rerouteNo="0" devices="tripinfo_13" vType="DEFAULT_VEHTYPE" speedFactor="1.12" vaporized=""/>
    <tripinfo id="14" depart="33.00" departLane="E5_0" departPos="5.10" departSpeed="0.00" departDelay="22.00" arrival="68.00" arrivalLane="E1_0" arrivalPos="42.80" arrivalSpeed="13.46" duration="35.00" routeLength="89.53" waitingTime="11.00" waitingCount="1" stopTime="0.00" timeLoss="27.15" rerouteNo="0" devices="tripinfo_14" vType="DEFAULT_VEHTYPE" speedFactor="0.99" vaporized=""/>
    <tripinfo id="18" depart="37.00" departLane="E5_0" departPos="5.10" departSpeed="0.00" departDelay="23.00" arrival="71.00" arrivalLane="E1_0" arrivalPos="42.80" arrivalSpeed="11.84" duration="34.00" routeLength="89.53" waitingTime="11.00" waitingCount="1" stopTime="0.00" timeLoss="25.86" rerouteNo="0" devices="tripinfo_18" vType="DEFAULT_VEHTYPE" speedFactor="0.94" vaporized=""/>
</tripinfos>
