<?xml version="1.0" encoding="UTF-8"?>

<!-- generated on 2025-01-30 12:57:05 by Eclipse SUMO sumo Version 1.21.0
<sumoConfiguration xmlns:xsi="http://www.w3.org/2001/XMLSchema-instance" xsi:noNamespaceSchemaLocation="http://sumo.dlr.de/xsd/sumoConfiguration.xsd">

    <input>
        <net-file value="sumo/basic.net.xml"/>
        <route-files value="sumo/basic.rou.xml"/>
    </input>

    <output>
        <tripinfo-output value="sumo_output/tripinfo.xml"/>
    </output>

    <traci_server>
        <remote-port value="38009"/>
    </traci_server>

</sumoConfiguration>
-->

<tripinfos xmlns:xsi="http://www.w3.org/2001/XMLSchema-instance" xsi:noNamespaceSchemaLocation="http://sumo.dlr.de/xsd/tripinfo_file.xsd">
    <tripinfo id="0" depart="0.00" departLane="E5_0" departPos="5.10" departSpeed="0.00" departDelay="0.00" arrival="12.00" arrivalLane="E1_0" arrivalPos="42.80" arrivalSpeed="13.07" duration="12.00" routeLength="89.53" waitingTime="0.00" waitingCount="0" stopTime="0.00" timeLoss="5.43" rerouteNo="0" devices="tripinfo_0" vType="DEFAULT_VEHTYPE" speedFactor="1.06" vaporized=""/>
    <tripinfo id="1" depart="0.00" departLane="E6_0" departPos="5.10" departSpeed="0.00" departDelay="0.00" arrival="57.00" arrivalLane="E1_0" arrivalPos="42.80" arrivalSpeed="12.52" duration="57.00" routeLength="95.43" waitingTime="39.00" waitingCount="1" stopTime="0.00" timeLoss="48.64" rerouteNo="0" devices="tripinfo_1" vType="DEFAULT_VEHTYPE" speedFactor="0.94" vaporized=""/>
</tripinfos>
