<?xml version="1.0" encoding="UTF-8"?>

<!-- generated on 2025-01-30 23:27:36 by Eclipse SUMO GUI Version 1.21.0
<sumoConfiguration xmlns:xsi="http://www.w3.org/2001/XMLSchema-instance" xsi:noNamespaceSchemaLocation="http://sumo.dlr.de/xsd/sumoConfiguration.xsd">

    <input>
        <net-file value="envs/basic/sumo/basic.net.xml"/>
        <route-files value="envs/basic/sumo/basic.rou.xml"/>
    </input>

    <output>
        <tripinfo-output value="sumo_log.txt"/>
    </output>

    <traci_server>
        <remote-port value="35407"/>
    </traci_server>

</sumoConfiguration>
-->

<tripinfos xmlns:xsi="http://www.w3.org/2001/XMLSchema-instance" xsi:noNamespaceSchemaLocation="http://sumo.dlr.de/xsd/tripinfo_file.xsd">
    <tripinfo id="1" depart="0.00" departLane="E6_0" departPos="5.10" departSpeed="0.00" departDelay="0.00" arrival="12.00" arrivalLane="E1_0" arrivalPos="42.80" arrivalSpeed="12.02" duration="12.00" routeLength="95.43" waitingTime="0.00" waitingCount="0" stopTime="0.00" timeLoss="4.15" rerouteNo="0" devices="tripinfo_1" vType="DEFAULT_VEHTYPE" speedFactor="0.94" vaporized=""/>
    <tripinfo id="0" depart="0.00" departLane="E5_0" departPos="5.10" departSpeed="0.00" departDelay="0.00" arrival="15.00" arrivalLane="E1_0" arrivalPos="42.80" arrivalSpeed="13.56" duration="15.00" routeLength="89.53" waitingTime="0.00" waitingCount="0" stopTime="0.00" timeLoss="7.83" rerouteNo="0" devices="tripinfo_0" vType="DEFAULT_VEHTYPE" speedFactor="1.06" vaporized=""/>
    <tripinfo id="5" depart="3.00" departLane="E6_0" departPos="5.10" departSpeed="0.00" departDelay="0.00" arrival="18.00" arrivalLane="E1_0" arrivalPos="42.80" arrivalSpeed="10.27" duration="15.00" routeLength="95.43" waitingTime="0.00" waitingCount="0" stopTime="0.00" timeLoss="5.18" rerouteNo="0" devices="tripinfo_5" vType="DEFAULT_VEHTYPE" speedFactor="0.83" vaporized=""/>
    <tripinfo id="2" depart="3.00" departLane="E5_0" departPos="5.10" departSpeed="0.00" departDelay="2.00" arrival="21.00" arrivalLane="E1_0" arrivalPos="42.80" arrivalSpeed="13.56" duration="18.00" routeLength="89.53" waitingTime="0.00" waitingCount="0" stopTime="0.00" timeLoss="10.31" rerouteNo="0" devices="tripinfo_2" vType="DEFAULT_VEHTYPE" speedFactor="1.01" vaporized=""/>
    <tripinfo id="6" depart="6.00" departLane="E6_0" departPos="5.10" departSpeed="0.00" departDelay="2.00" arrival="24.00" arrivalLane="E1_0" arrivalPos="42.80" arrivalSpeed="13.69" duration="18.00" routeLength="95.43" waitingTime="2.00" waitingCount="1" stopTime="0.00" timeLoss="10.38" rerouteNo="0" devices="tripinfo_6" vType="DEFAULT_VEHTYPE" speedFactor="1.05" vaporized=""/>
    <tripinfo id="3" depart="6.00" departLane="E5_0" departPos="5.10" departSpeed="0.00" departDelay="4.00" arrival="27.00" arrivalLane="E1_0" arrivalPos="42.80" arrivalSpeed="15.04" duration="21.00" routeLength="89.53" waitingTime="1.00" waitingCount="1" stopTime="0.00" timeLoss="14.02" rerouteNo="0" devices="tripinfo_3" vType="DEFAULT_VEHTYPE" speedFactor="1.08" vaporized=""/>
    <tripinfo id="4" depart="9.00" departLane="E5_0" departPos="5.10" departSpeed="0.00" departDelay="6.00" arrival="30.00" arrivalLane="E1_0" arrivalPos="42.80" arrivalSpeed="13.96" duration="21.00" routeLength="89.53" waitingTime="1.00" waitingCount="1" stopTime="0.00" timeLoss="13.23" rerouteNo="0" devices="tripinfo_4" vType="DEFAULT_VEHTYPE" speedFactor="1.03" vaporized=""/>
    <tripinfo id="8" depart="12.00" departLane="E5_0" departPos="5.10" departSpeed="0.00" departDelay="5.00" arrival="33.00" arrivalLane="E1_0" arrivalPos="42.80" arrivalSpeed="12.14" duration="21.00" routeLength="89.53" waitingTime="0.00" waitingCount="0" stopTime="0.00" timeLoss="12.95" rerouteNo="0" devices="tripinfo_8" vType="DEFAULT_VEHTYPE" speedFactor="0.94" vaporized=""/>
    <tripinfo id="9" depart="15.00" departLane="E5_0" departPos="5.10" departSpeed="0.00" departDelay="7.50" arrival="36.00" arrivalLane="E1_0" arrivalPos="42.80" arrivalSpeed="11.48" duration="21.00" routeLength="89.53" waitingTime="0.00" waitingCount="0" stopTime="0.00" timeLoss="11.69" rerouteNo="0" devices="tripinfo_9" vType="DEFAULT_VEHTYPE" speedFactor="0.86" vaporized=""/>
    <tripinfo id="10" depart="19.00" departLane="E5_0" departPos="5.10" departSpeed="0.00" departDelay="10.00" arrival="38.00" arrivalLane="E1_0" arrivalPos="42.80" arrivalSpeed="14.33" duration="19.00" routeLength="89.53" waitingTime="0.00" waitingCount="0" stopTime="0.00" timeLoss="11.70" rerouteNo="0" devices="tripinfo_10" vType="DEFAULT_VEHTYPE" speedFactor="1.09" vaporized=""/>
    <tripinfo id="7" depart="9.00" departLane="E6_0" departPos="5.10" departSpeed="0.00" departDelay="4.00" arrival="41.00" arrivalLane="E1_0" arrivalPos="42.80" arrivalSpeed="11.35" duration="32.00" routeLength="95.43" waitingTime="12.00" waitingCount="1" stopTime="0.00" timeLoss="22.91" rerouteNo="0" devices="tripinfo_7" vType="DEFAULT_VEHTYPE" speedFactor="0.89" vaporized=""/>
    <tripinfo id="11" depart="12.00" departLane="E6_0" departPos="5.10" departSpeed="0.00" departDelay="3.00" arrival="43.00" arrivalLane="E1_0" arrivalPos="42.80" arrivalSpeed="13.05" duration="31.00" routeLength="95.43" waitingTime="10.00" waitingCount="1" stopTime="0.00" timeLoss="23.27" rerouteNo="0" devices="tripinfo_11" vType="DEFAULT_VEHTYPE" speedFactor="1.03" vaporized=""/>
    <tripinfo id="15" depart="15.00" departLane="E6_0" departPos="5.10" departSpeed="0.00" departDelay="4.00" arrival="45.00" arrivalLane="E1_0" arrivalPos="42.80" arrivalSpeed="12.39" duration="30.00" routeLength="95.43" waitingTime="8.00" waitingCount="1" stopTime="0.00" timeLoss="22.02" rerouteNo="0" devices="tripinfo_15" vType="DEFAULT_VEHTYPE" speedFactor="0.93" vaporized=""/>
    <tripinfo id="12" depart="26.00" departLane="E5_0" departPos="5.10" departSpeed="0.00" departDelay="16.00" arrival="48.00" arrivalLane="E1_0" arrivalPos="42.80" arrivalSpeed="13.55" duration="22.00" routeLength="89.53" waitingTime="4.00" waitingCount="1" stopTime="0.00" timeLoss="15.03" rerouteNo="0" devices="tripinfo_12" vType="DEFAULT_VEHTYPE" speedFactor="1.05" vaporized=""/>
    <tripinfo id="16" depart="18.00" departLane="E6_0" departPos="5.10" departSpeed="0.00" departDelay="5.00" arrival="51.00" arrivalLane="E1_0" arrivalPos="42.80" arrivalSpeed="12.08" duration="33.00" routeLength="95.43" waitingTime="7.00" waitingCount="1" stopTime="0.00" timeLoss="24.17" rerouteNo="0" devices="tripinfo_16" vType="DEFAULT_VEHTYPE" speedFactor="0.88" vaporized=""/>
    <tripinfo id="17" depart="21.00" departLane="E6_0" departPos="5.10" departSpeed="0.00" departDelay="7.50" arrival="53.00" arrivalLane="E1_0" arrivalPos="42.80" arrivalSpeed="12.44" duration="32.00" routeLength="95.43" waitingTime="7.00" waitingCount="1" stopTime="0.00" timeLoss="23.86" rerouteNo="0" devices="tripinfo_17" vType="DEFAULT_VEHTYPE" speedFactor="0.94" vaporized=""/>
    <tripinfo id="13" depart="29.00" departLane="E5_0" departPos="5.10" departSpeed="0.00" departDelay="18.50" arrival="56.00" arrivalLane="E1_0" arrivalPos="42.80" arrivalSpeed="12.74" duration="27.00" routeLength="89.53" waitingTime="7.00" waitingCount="3" stopTime="0.00" timeLoss="20.59" rerouteNo="0" devices="tripinfo_13" vType="DEFAULT_VEHTYPE" speedFactor="1.12" vaporized=""/>
    <tripinfo id="19" depart="25.00" departLane="E6_0" departPos="5.10" departSpeed="0.00" departDelay="10.00" arrival="58.00" arrivalLane="E1_0" arrivalPos="42.80" arrivalSpeed="14.22" duration="33.00" routeLength="95.43" waitingTime="8.00" waitingCount="1" stopTime="0.00" timeLoss="26.39" rerouteNo="0" devices="tripinfo_19" vType="DEFAULT_VEHTYPE" speedFactor="1.16" vaporized=""/>
    <tripinfo id="20" depart="42.00" departLane="E6_0" departPos="5.10" departSpeed="0.00" departDelay="25.00" arrival="61.00" arrivalLane="E1_0" arrivalPos="42.80" arrivalSpeed="13.56" duration="19.00" routeLength="95.43" waitingTime="0.00" waitingCount="0" stopTime="0.00" timeLoss="10.98" rerouteNo="0" devices="tripinfo_20" vType="DEFAULT_VEHTYPE" speedFactor="1.02" vaporized=""/>
    <tripinfo id="14" depart="32.00" departLane="E5_0" departPos="5.10" departSpeed="0.00" departDelay="21.00" arrival="64.00" arrivalLane="E1_0" arrivalPos="42.80" arrivalSpeed="12.89" duration="32.00" routeLength="89.53" waitingTime="6.00" waitingCount="3" stopTime="0.00" timeLoss="25.06" rerouteNo="0" devices="tripinfo_14" vType="DEFAULT_VEHTYPE" speedFactor="0.99" vaporized=""/>
    <tripinfo id="18" depart="35.00" departLane="E5_0" departPos="5.10" departSpeed="0.00" departDelay="21.00" arrival="68.00" arrivalLane="E1_0" arrivalPos="42.80" arrivalSpeed="11.99" duration="33.00" routeLength="89.53" waitingTime="3.00" waitingCount="2" stopTime="0.00" timeLoss="25.21" rerouteNo="0" devices="tripinfo_18" vType="DEFAULT_VEHTYPE" speedFactor="0.94" vaporized=""/>
</tripinfos>
